 Gaussian 09, Revision C.01,
 Gaussian 09:  EM64L-G09RevC.01 23-Sep-2011

 -----------------------------------------
 # opt freq b3lyp/6-31g* geom=connectivity
 -----------------------------------------

 99/9=1/99;
 --------
 reaction
 --------
 Charge =  0 Multiplicity = 2

 SCF Done:  E(UB3LYP) =  -1419.78858717     A.U. after   24 cycles
 SCF Done:  E(UB3LYP) =  -1419.80831656     A.U. after   20 cycles
 SCF Done:  E(UB3LYP) =  -1419.82968323     A.U. after   19 cycles
 SCF Done:  E(UB3LYP) =  -1419.83058584     A.U. after   22 cycles
 SCF Done:  E(UB3LYP) =  -1419.82939510     A.U. after   23 cycles
 SCF Done:  E(UB3LYP) =  -1419.83124498     A.U. after   22 cycles
 SCF Done:  E(UB3LYP) =  -1419.83211315     A.U. after   21 cycles
 SCF Done:  E(UB3LYP) =  -1419.83303969     A.U. after   21 cycles
 SCF Done:  E(UB3LYP) =  -1419.83343393     A.U. after   21 cycles
 SCF Done:  E(UB3LYP) =  -1419.83344142     A.U. after   22 cycles
 SCF Done:  E(UB3LYP) =  -1419.83349431     A.U. after   21 cycles
 SCF Done:  E(UB3LYP) =  -1419.83350352     A.U. after   19 cycles
 SCF Done:  E(UB3LYP) =  -1419.83350461     A.U. after   13 cycles
 Optimization completed.
    -- Stationary point found.
 Normal termination of Gaussian 09 at Tue Feb 23 15:31:53 2021.

 --------------------------------------------------------------------
 #N Geom=AllCheck Guess=TCheck SCRF=Check GenChk UB3LYP/6-31G(d) Freq
 --------------------------------------------------------------------

 Structure from the checkpoint file:  r.chk
 --------
 reaction
 --------
 Charge =  0 Multiplicity = 2

                         Standard orientation:
 ---------------------------------------------------------------------
 Center     Atomic      Atomic             Coordinates (Angstroms)
 Number     Number       Type             X           Y           Z
 ---------------------------------------------------------------------
      1          6           0       -0.483167   -0.000292    0.485604
      2          1           0       -0.499999   -0.000253    1.573965
      3         17           0        2.650105   -0.001851   -0.054848
      4          1           0        0.577186   -0.002111    0.137428
      5         17           0       -1.239535    1.491083   -0.108533
      6         17           0       -1.244581   -1.488990   -0.108678
 ---------------------------------------------------------------------

 SCF Done:  E(UB3LYP) =  -1419.83350461     A.U. after    1 cycles

 The electronic state is 2-A.
 Alpha  occ. eigenvalues -- -101.58064-101.58061-101.57606 -10.33798  -9.49728
 Alpha  occ. eigenvalues --   -9.49725  -9.48955  -7.26209  -7.26159  -7.26155
 Alpha  occ. eigenvalues --   -7.25159  -7.25156  -7.25087  -7.25084  -7.24185
 Alpha  occ. eigenvalues --   -7.24181  -0.93071  -0.85323  -0.82921  -0.69261
 Alpha  occ. eigenvalues --   -0.52640  -0.49090  -0.47201  -0.38843  -0.35080
 Alpha  occ. eigenvalues --   -0.34942  -0.33840  -0.33839  -0.33265  -0.32324
 Alpha virt. eigenvalues --   -0.02893   0.01564   0.08788   0.13026   0.32372
 Alpha virt. eigenvalues --    0.35874   0.36046   0.38542   0.39481   0.39943
 Alpha virt. eigenvalues --    0.41356   0.43729   0.44451   0.46003   0.48160

  Beta  occ. eigenvalues -- -101.58029-101.58027-101.57023 -10.33582  -9.49696
  Beta  occ. eigenvalues --   -9.49693  -9.48406  -7.26129  -7.26126  -7.25079
  Beta  occ. eigenvalues --   -7.25077  -7.25049  -7.25046  -7.24360  -7.23851
  Beta  occ. eigenvalues --   -7.23848  -0.92784  -0.85116  -0.78546  -0.68577
  Beta  occ. eigenvalues --   -0.51591  -0.48696  -0.47009  -0.35135  -0.34584
  Beta  occ. eigenvalues --   -0.33287  -0.32875  -0.32455  -0.32388
  Beta virt. eigenvalues --   -0.23872  -0.02639   0.01820   0.08974   0.13885
  Beta virt. eigenvalues --    0.32534   0.36031   0.37373   0.38690   0.40040
  Beta virt. eigenvalues --    0.40429   0.42243   0.43930   0.44735   0.47255

 Mulliken atomic charges:
              1
     1  C   -0.441514
     2  H    0.259049
     3  Cl  -0.103180
     4  H    0.206583
     5  Cl   0.039512
     6  Cl   0.039551
 Sum of Mulliken atomic charges =   0.00000

 Dipole moment (field-independent basis, Debye):
    X=             -0.6485    Y=             -0.0011    Z=              1.1633  Tot=              1.3318
 Quadrupole moment (field-independent basis, Debye-Ang):
   XX=            -47.1118   YY=            -45.4747   ZZ=            -43.1647
   XY=              0.0024   XZ=             -0.6581   YZ=             -0.0007

  Exact polarizability: 109.529  -0.010  53.143  -0.867  -0.001  27.696
 Approx polarizability: 152.072   0.013  77.586   0.456  -0.003  37.874

                     1                      2                      3
                     A                      A                      A
 Frequencies --    46.2652                65.8830               133.8113
 Red. masses --    18.3261                17.2486                 2.5427
 Frc consts  --     0.0231                 0.0441                 0.0268
 IR Inten    --     0.8506                11.6774                 5.5448

                     4                      5                      6
                     A                      A                      A
 Frequencies --   291.3509               722.1606               757.7003
 Red. masses --    18.7288                 7.5473                 8.2165
 Frc consts  --     0.9367                 2.3191                 2.7793
 IR Inten    --     1.8185                45.7596               169.4846

                     7                      8                      9
                     A                      A                      A
 Frequencies --   903.6231              1157.6578              1293.4185
 Red. masses --     1.3762                 1.0216                 1.1091
 Frc consts  --     0.6621                 0.8067                 1.0932
 IR Inten    --     2.7362                 0.2152                27.4851

                    10                     11                     12
                     A                      A                      A
 Frequencies --  1393.5144              2704.8880              3182.3217
 Red. masses --     1.0766                 1.0766                 1.0889
 Frc consts  --     1.2318                 4.6409                 6.4974
 IR Inten    --   124.2523              1673.9018                 0.4508

 - Thermochemistry -
 -------------------
 Temperature   298.150 Kelvin.  Pressure   1.00000 Atm.
 Atom     1 has atomic number  6 and mass  12.00000

 Molecular mass:   118.92221 amu.
 Principal axes and moments of inertia in atomic units:
                           1         2         3
     Eigenvalues --   576.790721296.705341828.91946
           X            1.00000  -0.00001  -0.00235
           Y            0.00001   1.00000  -0.00001
           Z            0.00235   0.00001   1.00000
 This molecule is an asymmetric top.
 Rotational symmetry number  1.
 Warning -- assumption of classical behavior for rotation
           may cause significant error
 Rotational temperatures (Kelvin)      0.15017     0.06680     0.04736
 Rotational constants (GHZ):           3.12894     1.39179     0.98678
 Zero-point vibrational energy      75679.3 (Joules/Mol)
                                   18.08779 (Kcal/Mol)
 Warning -- explicit consideration of   4 degrees of freedom as
           vibrations may cause significant error
 Vibrational temperatures:     66.57    94.79   192.52   419.19  1039.03
          (Kelvin)           1090.16  1300.11  1665.61  1860.94  2004.95
                             3891.73  4578.65

 Zero-point correction=                           0.028825 (Hartree/Particle)
 Thermal correction to Energy=                    0.034693
 Thermal correction to Enthalpy=                  0.035637
 Thermal correction to Gibbs Free Energy=        -0.004595
 Sum of electronic and zero-point Energies=          -1419.804680
 Sum of electronic and thermal Energies=             -1419.798812
 Sum of electronic and thermal Enthalpies=           -1419.797868
 Sum of electronic and thermal Free Energies=        -1419.838100

                     E (Thermal)             CV                S
                      KCal/Mol        Cal/Mol-Kelvin    Cal/Mol-Kelvin
 Total                   21.770             16.021             84.676
 Electronic               0.000              0.000              1.377
 Translational            0.889              2.981             40.235
 Rotational               0.889              2.981             28.705
 Vibrational             19.993             10.059             14.359
 Vibration     1          0.595              1.979              4.971
 Vibration     2          0.597              1.971              4.273
 Vibration     3          0.613              1.920              2.891
 Vibration     4          0.687              1.690              1.466

 Normal termination of Gaussian 09 at Tue Feb 23 15:32:03 2021.
