 Gaussian 09, Revision C.01,
 Gaussian 09:  EM64L-G09RevC.01 23-Sep-2011

 -----------------------------------------
 # opt freq b3lyp/6-31g* geom=connectivity
 -----------------------------------------

 99/9=1/99;
 ---------------------------------
 reaction new with updated version
 ---------------------------------
 Charge =  0 Multiplicity = 2

 SCF Done:  E(UB3LYP) =  -1419.82317996     A.U. after   17 cycles
 SCF Done:  E(UB3LYP) =  -1419.82721815     A.U. after   18 cycles
 SCF Done:  E(UB3LYP) =  -1419.82448714     A.U. after   19 cycles
 SCF Done:  E(UB3LYP) =  -1419.82751933     A.U. after   18 cycles
 SCF Done:  E(UB3LYP) =  -1419.82817826     A.U. after   15 cycles
 SCF Done:  E(UB3LYP) =  -1419.82826030     A.U. after   17 cycles
 SCF Done:  E(UB3LYP) =  -1419.82892479     A.U. after   18 cycles
 SCF Done:  E(UB3LYP) =  -1419.82968330     A.U. after   16 cycles
 SCF Done:  E(UB3LYP) =  -1419.83066291     A.U. after   18 cycles
 SCF Done:  E(UB3LYP) =  -1419.81710346     A.U. after   25 cycles
 SCF Done:  E(UB3LYP) =  -1419.83247854     A.U. after   20 cycles
 SCF Done:  E(UB3LYP) =  -1419.83301549     A.U. after   18 cycles
 SCF Done:  E(UB3LYP) =  -1419.83290756     A.U. after   28 cycles
 SCF Done:  E(UB3LYP) =  -1419.83323279     A.U. after   22 cycles
 SCF Done:  E(UB3LYP) =  -1419.83343497     A.U. after   21 cycles
 SCF Done:  E(UB3LYP) =  -1419.83349786     A.U. after   21 cycles
 SCF Done:  E(UB3LYP) =  -1419.83350377     A.U. after   13 cycles
 SCF Done:  E(UB3LYP) =  -1419.83350460     A.U. after   13 cycles
 SCF Done:  E(UB3LYP) =  -1419.83350469     A.U. after   12 cycles
 Optimization completed.
    -- Stationary point found.
 Normal termination of Gaussian 09 at Tue Feb 23 16:17:00 2021.

 --------------------------------------------------------------------
 #N Geom=AllCheck Guess=TCheck SCRF=Check GenChk UB3LYP/6-31G(d) Freq
 --------------------------------------------------------------------

 Structure from the checkpoint file:  rupdate.chk
 ---------------------------------
 reaction new with updated version
 ---------------------------------
 Charge =  0 Multiplicity = 2

                         Standard orientation:
 ---------------------------------------------------------------------
 Center     Atomic      Atomic             Coordinates (Angstroms)
 Number     Number       Type             X           Y           Z
 ---------------------------------------------------------------------
      1          6           0       -0.483358    0.000098    0.484989
      2          1           0       -0.499077    0.000047    1.573415
      3         17           0        2.651630    0.000461   -0.054790
      4          1           0        0.576622    0.000566    0.135898
      5         17           0       -1.243429    1.489771   -0.108485
      6         17           0       -1.242166   -1.490302   -0.108446
 ---------------------------------------------------------------------

 SCF Done:  E(UB3LYP) =  -1419.83350469     A.U. after    1 cycles

 The electronic state is 2-A.
 Alpha  occ. eigenvalues -- -101.58059-101.58058-101.57615 -10.33793  -9.49723
 Alpha  occ. eigenvalues --   -9.49722  -9.48963  -7.26218  -7.26154  -7.26152
 Alpha  occ. eigenvalues --   -7.25154  -7.25152  -7.25082  -7.25081  -7.24193
 Alpha  occ. eigenvalues --   -7.24189  -0.93068  -0.85320  -0.82926  -0.69256
 Alpha  occ. eigenvalues --   -0.52631  -0.49086  -0.47198  -0.38849  -0.35076
 Alpha  occ. eigenvalues --   -0.34940  -0.33845  -0.33844  -0.33264  -0.32324
 Alpha virt. eigenvalues --   -0.02889   0.01569   0.08789   0.13011   0.32372
 Alpha virt. eigenvalues --    0.35880   0.36037   0.38545   0.39481   0.39954
 Alpha virt. eigenvalues --    0.41356   0.43732   0.44461   0.45994   0.48148

  Beta  occ. eigenvalues -- -101.58025-101.58023-101.57032 -10.33578  -9.49692
  Beta  occ. eigenvalues --   -9.49690  -9.48414  -7.26125  -7.26122  -7.25075
  Beta  occ. eigenvalues --   -7.25074  -7.25044  -7.25043  -7.24368  -7.23859
  Beta  occ. eigenvalues --   -7.23856  -0.92781  -0.85113  -0.78548  -0.68575
  Beta  occ. eigenvalues --   -0.51586  -0.48693  -0.47006  -0.35131  -0.34581
  Beta  occ. eigenvalues --   -0.33284  -0.32871  -0.32459  -0.32393
  Beta virt. eigenvalues --   -0.23879  -0.02636   0.01824   0.08974   0.13867
  Beta virt. eigenvalues --    0.32534   0.36037   0.37364   0.38692   0.40051
  Beta virt. eigenvalues --    0.40429   0.42239   0.43933   0.44743   0.47247

 Mulliken atomic charges:
              1
     1  C   -0.441659
     2  H    0.259003
     3  Cl  -0.103017
     4  H    0.206814
     5  Cl   0.039450
     6  Cl   0.039409
 Sum of Mulliken atomic charges =   0.00000

 Dipole moment (field-independent basis, Debye):
    X=             -0.6435    Y=              0.0005    Z=              1.1617  Tot=              1.3280
 Quadrupole moment (field-independent basis, Debye-Ang):
   XX=            -47.1077   YY=            -45.4772   ZZ=            -43.1676
   XY=             -0.0008   XZ=             -0.6562   YZ=              0.0001

  Exact polarizability: 109.616   0.003  53.137  -0.865   0.000  27.692
 Approx polarizability: 152.146  -0.003  77.567   0.465   0.001  37.862

                     1                      2                      3
                     A                      A                      A
 Frequencies --    46.1356                65.5966               133.5986
 Red. masses --    18.3183                17.3458                 2.5415
 Frc consts  --     0.0230                 0.0440                 0.0267
 IR Inten    --     0.8499                11.7174                 5.4988

                     4                      5                      6
                     A                      A                      A
 Frequencies --   291.3300               722.1901               757.7974
 Red. masses --    18.7287                 7.5476                 8.2148
 Frc consts  --     0.9365                 2.3193                 2.7794
 IR Inten    --     1.8168                45.7212               169.4019

                     7                      8                      9
                     A                      A                      A
 Frequencies --   903.7754              1157.8982              1293.6533
 Red. masses --     1.3759                 1.0216                 1.1091
 Frc consts  --     0.6621                 0.8070                 1.0936
 IR Inten    --     2.7889                 0.2120                27.5072

                    10                     11                     12
                     A                      A                      A
 Frequencies --  1393.8464              2706.5101              3181.8476
 Red. masses --     1.0766                 1.0766                 1.0889
 Frc consts  --     1.2323                 4.6464                 6.4955
 IR Inten    --   124.7131              1672.0169                 0.4677

 - Thermochemistry -
 -------------------
 Temperature   298.150 Kelvin.  Pressure   1.00000 Atm.
 Atom     1 has atomic number  6 and mass  12.00000

 Molecular mass:   118.92221 amu.
 Principal axes and moments of inertia in atomic units:
                           1         2         3
     Eigenvalues --   576.748941298.133581830.38874
           X            1.00000   0.00000  -0.00234
           Y            0.00000   1.00000   0.00000
           Z            0.00234   0.00000   1.00000
 This molecule is an asymmetric top.
 Rotational symmetry number  1.
 Warning -- assumption of classical behavior for rotation
           may cause significant error
 Rotational temperatures (Kelvin)      0.15018     0.06672     0.04732
 Rotational constants (GHZ):           3.12916     1.39026     0.98599
 Zero-point vibrational energy      75688.8 (Joules/Mol)
                                   18.09006 (Kcal/Mol)
 Warning -- explicit consideration of   4 degrees of freedom as
           vibrations may cause significant error
 Vibrational temperatures:     66.38    94.38   192.22   419.16  1039.07
          (Kelvin)           1090.30  1300.33  1665.96  1861.28  2005.43
                             3894.06  4577.96

 Zero-point correction=                           0.028828 (Hartree/Particle)
 Thermal correction to Energy=                    0.034698
 Thermal correction to Enthalpy=                  0.035642
 Thermal correction to Gibbs Free Energy=        -0.004600
 Sum of electronic and zero-point Energies=          -1419.804676
 Sum of electronic and thermal Energies=             -1419.798807
 Sum of electronic and thermal Enthalpies=           -1419.797863
 Sum of electronic and thermal Free Energies=        -1419.838104

                     E (Thermal)             CV                S
                      KCal/Mol        Cal/Mol-Kelvin    Cal/Mol-Kelvin
 Total                   21.773             16.020             84.695
 Electronic               0.000              0.000              1.377
 Translational            0.889              2.981             40.235
 Rotational               0.889              2.981             28.707
 Vibrational             19.996             10.059             14.376
 Vibration     1          0.595              1.979              4.977
 Vibration     2          0.597              1.971              4.281
 Vibration     3          0.613              1.920              2.894
 Vibration     4          0.687              1.690              1.466

 Optimization completed.
    -- Stationary point found.
 Normal termination of Gaussian 09 at Tue Feb 23 16:17:10 2021.
